
Linearized model: Predictions were generated on 17-Feb-2020 at 19:44:51 using OpenFAST, compiled as a 64-bit application using single precision at commit v2.2.0
 linked with  NWTC Subroutine Library; ElastoDyn; InflowWind; AeroDyn; ServoDyn

Description from the FAST input file: FAST          Certification - Test #24: NREL 5.0 MW Baseline Wind Turbine with OC3 Hywind Configuration, for use in offshore analysis

Simulation information:
   Simulation time:                   103.4900 s
   Rotor Speed:                         0.4781 rad/s
   Azimuth:                             1.5151 rad
   Number of continuous states:         4
   Number of discrete states:           0
   Number of constraint states:         0
   Number of inputs:                    9
   Number of outputs:                  16
   Jacobians included in this file?    No

Order of continuous states:
   Row/Column Operating Point                                    Rotating Frame? Description
   ---------- ---------------                                    --------------- -----------
          1    2.55793370E-02                                           F        ED 1st tower fore-aft bending mode DOF (internal DOF index = DOF_TFA1), m
          2    6.22744131E+00                                           F        ED Variable speed generator DOF (internal DOF index = DOF_GeAz), rad
          3    3.49810551E-04                                           F        ED First time derivative of 1st tower fore-aft bending mode DOF (internal DOF index = DOF_TFA1), m/s
          4    4.78124619E-01                                           F        ED First time derivative of Variable speed generator DOF (internal DOF index = DOF_GeAz), rad/s

Order of continuous state derivatives:
   Row/Column Operating Point                                    Rotating Frame? Description
   ---------- ---------------                                    --------------- -----------
          1    3.49810551E-04                                           F        First time derivative of ED 1st tower fore-aft bending mode DOF (internal DOF index = DOF_TFA1), m/s
          2    4.78124619E-01                                           F        First time derivative of ED Variable speed generator DOF (internal DOF index = DOF_GeAz), rad/s
          3    1.47421670E-03                                           F        First time derivative of ED First time derivative of 1st tower fore-aft bending mode DOF (internal DOF index = DOF_TFA1), m/s/s
          4    1.45823855E-04                                           F        First time derivative of ED First time derivative of Variable speed generator DOF (internal DOF index = DOF_GeAz), rad/s/s

Order of inputs:
     Column   Operating Point                                    Rotating Frame? Description
   ---------- ---------------                                    --------------- -----------
          1    4.00000000E+00                                           F        IfW Extended input: horizontal wind speed (steady/uniform wind), m/s
          2    0.00000000E+00                                           F        IfW Extended input: vertical power-law shear exponent, -
          3    0.00000000E+00                                           F        IfW Extended input: propagation direction, rad
          4    0.00000000E+00                                           T        ED Blade 1 pitch command, rad
          5    0.00000000E+00                                           T        ED Blade 2 pitch command, rad
          6    0.00000000E+00                                           T        ED Blade 3 pitch command, rad
          7    0.00000000E+00                                           F        ED Yaw moment, Nm
          8    5.01650195E+03                                           F        ED Generator torque, Nm
          9    0.00000000E+00                                           F        ED Extended input: collective blade-pitch command, rad

Order of outputs:
        Row   Operating Point                                    Rotating Frame? Description
   ---------- ---------------                                    --------------- -----------
          1    4.00000000E+00                                           F        IfW Wind1VelX, (m/s)
          2    2.19627060E+02                                           F        SrvD GenPwr, (kW)
          3    5.01650238E+00                                           F        SrvD GenTq, (kN-m)
          4    0.00000000E+00                                           T        ED BldPitch1, (deg)
          5    8.68060989E+01                                           F        ED Azimuth, (deg)
          6    4.56575346E+00                                           F        ED RotSpeed, (rpm)
          7    4.42878082E+02                                           F        ED GenSpeed, (rpm)
          8    1.52781035E-03                                           F        ED NcIMUTAxs, (m/s^2)
          9    2.55793370E-02                                           F        ED TTDspFA, (m)
         10    1.89466110E+02                                           F        ED RotThrust, (kN)
         11    4.87334503E+02                                           F        ED RotTorq, (kN-m)
         12    5.65206299E+03                                           F        ED TwHt2MLyt, (kN-m)
         13   -1.05843262E+03                                           F        ED TwHt9MLyt, (kN-m)
         14    6.20309961E+03                                           F        ED TwrBsMyt, (kN-m)
         15    9.55657109E+04                                           F        AD RtAeroFxh, (N)
         16    4.92973375E+05                                           F        AD RtAeroMxh, (N-m)


ED M:1_PtfmSgDOF     2_PtfmSwDOF     3_PtfmHvDOF     4_PtfmRDOF      5_PtfmPDOF      6_PtfmYDOF      7_TwFADOF1      8_TwSSDOF1      9_TwFADOF1      10_TwSSDOF2     11_Yaw          12_RFrl         13_GeAz         14_DrTr         15_TFrl         16_B1Flap1      17_B1Edge1      18_B1Flap2      19_B2Flap1      20_B2Edge1      21_B2Flap2      22_B3Flap1      23_B3Edge1     24_B3Flap2
    0.000000E+00    0.000000E+00    0.000000E+00    0.000000E+00    0.000000E+00    0.000000E+00    0.000000E+00    0.000000E+00    0.000000E+00    0.000000E+00    0.000000E+00    0.000000E+00    0.000000E+00    0.000000E+00    0.000000E+00    0.000000E+00    0.000000E+00    0.000000E+00    0.000000E+00    0.000000E+00    0.000000E+00    0.000000E+00    0.000000E+00    0.000000E+00
    0.000000E+00    0.000000E+00    0.000000E+00    0.000000E+00    0.000000E+00    0.000000E+00    0.000000E+00    0.000000E+00    0.000000E+00    0.000000E+00    0.000000E+00    0.000000E+00    0.000000E+00    0.000000E+00    0.000000E+00    0.000000E+00    0.000000E+00    0.000000E+00    0.000000E+00    0.000000E+00    0.000000E+00    0.000000E+00    0.000000E+00    0.000000E+00
    0.000000E+00    0.000000E+00    0.000000E+00    0.000000E+00    0.000000E+00    0.000000E+00    0.000000E+00    0.000000E+00    0.000000E+00    0.000000E+00    0.000000E+00    0.000000E+00    0.000000E+00    0.000000E+00    0.000000E+00    0.000000E+00    0.000000E+00    0.000000E+00    0.000000E+00    0.000000E+00    0.000000E+00    0.000000E+00    0.000000E+00    0.000000E+00
    0.000000E+00    0.000000E+00    0.000000E+00    0.000000E+00    0.000000E+00    0.000000E+00    0.000000E+00    0.000000E+00    0.000000E+00    0.000000E+00    0.000000E+00    0.000000E+00    0.000000E+00    0.000000E+00    0.000000E+00    0.000000E+00    0.000000E+00    0.000000E+00    0.000000E+00    0.000000E+00    0.000000E+00    0.000000E+00    0.000000E+00    0.000000E+00
    0.000000E+00    0.000000E+00    0.000000E+00    0.000000E+00    0.000000E+00    0.000000E+00    0.000000E+00    0.000000E+00    0.000000E+00    0.000000E+00    0.000000E+00    0.000000E+00    0.000000E+00    0.000000E+00    0.000000E+00    0.000000E+00    0.000000E+00    0.000000E+00    0.000000E+00    0.000000E+00    0.000000E+00    0.000000E+00    0.000000E+00    0.000000E+00
    0.000000E+00    0.000000E+00    0.000000E+00    0.000000E+00    0.000000E+00    0.000000E+00    0.000000E+00    0.000000E+00    0.000000E+00    0.000000E+00    0.000000E+00    0.000000E+00    0.000000E+00    0.000000E+00    0.000000E+00    0.000000E+00    0.000000E+00    0.000000E+00    0.000000E+00    0.000000E+00    0.000000E+00    0.000000E+00    0.000000E+00    0.000000E+00
    0.000000E+00    0.000000E+00    0.000000E+00    0.000000E+00    0.000000E+00    0.000000E+00    0.436753E+06    0.000000E+00    0.000000E+00    0.000000E+00    0.000000E+00    0.000000E+00   -0.162617E-02    0.000000E+00    0.000000E+00    0.000000E+00    0.000000E+00    0.000000E+00    0.000000E+00    0.000000E+00    0.000000E+00    0.000000E+00    0.000000E+00    0.000000E+00
    0.000000E+00    0.000000E+00    0.000000E+00    0.000000E+00    0.000000E+00    0.000000E+00    0.000000E+00    0.000000E+00    0.000000E+00    0.000000E+00    0.000000E+00    0.000000E+00    0.000000E+00    0.000000E+00    0.000000E+00    0.000000E+00    0.000000E+00    0.000000E+00    0.000000E+00    0.000000E+00    0.000000E+00    0.000000E+00    0.000000E+00    0.000000E+00
    0.000000E+00    0.000000E+00    0.000000E+00    0.000000E+00    0.000000E+00    0.000000E+00    0.000000E+00    0.000000E+00    0.000000E+00    0.000000E+00    0.000000E+00    0.000000E+00    0.000000E+00    0.000000E+00    0.000000E+00    0.000000E+00    0.000000E+00    0.000000E+00    0.000000E+00    0.000000E+00    0.000000E+00    0.000000E+00    0.000000E+00    0.000000E+00
    0.000000E+00    0.000000E+00    0.000000E+00    0.000000E+00    0.000000E+00    0.000000E+00    0.000000E+00    0.000000E+00    0.000000E+00    0.000000E+00    0.000000E+00    0.000000E+00    0.000000E+00    0.000000E+00    0.000000E+00    0.000000E+00    0.000000E+00    0.000000E+00    0.000000E+00    0.000000E+00    0.000000E+00    0.000000E+00    0.000000E+00    0.000000E+00
    0.000000E+00    0.000000E+00    0.000000E+00    0.000000E+00    0.000000E+00    0.000000E+00    0.000000E+00    0.000000E+00    0.000000E+00    0.000000E+00    0.000000E+00    0.000000E+00    0.000000E+00    0.000000E+00    0.000000E+00    0.000000E+00    0.000000E+00    0.000000E+00    0.000000E+00    0.000000E+00    0.000000E+00    0.000000E+00    0.000000E+00    0.000000E+00
    0.000000E+00    0.000000E+00    0.000000E+00    0.000000E+00    0.000000E+00    0.000000E+00    0.000000E+00    0.000000E+00    0.000000E+00    0.000000E+00    0.000000E+00    0.000000E+00    0.000000E+00    0.000000E+00    0.000000E+00    0.000000E+00    0.000000E+00    0.000000E+00    0.000000E+00    0.000000E+00    0.000000E+00    0.000000E+00    0.000000E+00    0.000000E+00
    0.000000E+00    0.000000E+00    0.000000E+00    0.000000E+00    0.000000E+00    0.000000E+00   -0.162617E-02    0.000000E+00    0.000000E+00    0.000000E+00    0.000000E+00    0.000000E+00    0.437026E+08    0.000000E+00    0.000000E+00    0.000000E+00    0.000000E+00    0.000000E+00    0.000000E+00    0.000000E+00    0.000000E+00    0.000000E+00    0.000000E+00    0.000000E+00
    0.000000E+00    0.000000E+00    0.000000E+00    0.000000E+00    0.000000E+00    0.000000E+00    0.000000E+00    0.000000E+00    0.000000E+00    0.000000E+00    0.000000E+00    0.000000E+00    0.000000E+00    0.000000E+00    0.000000E+00    0.000000E+00    0.000000E+00    0.000000E+00    0.000000E+00    0.000000E+00    0.000000E+00    0.000000E+00    0.000000E+00    0.000000E+00
    0.000000E+00    0.000000E+00    0.000000E+00    0.000000E+00    0.000000E+00    0.000000E+00    0.000000E+00    0.000000E+00    0.000000E+00    0.000000E+00    0.000000E+00    0.000000E+00    0.000000E+00    0.000000E+00    0.000000E+00    0.000000E+00    0.000000E+00    0.000000E+00    0.000000E+00    0.000000E+00    0.000000E+00    0.000000E+00    0.000000E+00    0.000000E+00
    0.000000E+00    0.000000E+00    0.000000E+00    0.000000E+00    0.000000E+00    0.000000E+00    0.000000E+00    0.000000E+00    0.000000E+00    0.000000E+00    0.000000E+00    0.000000E+00    0.000000E+00    0.000000E+00    0.000000E+00    0.000000E+00    0.000000E+00    0.000000E+00    0.000000E+00    0.000000E+00    0.000000E+00    0.000000E+00    0.000000E+00    0.000000E+00
    0.000000E+00    0.000000E+00    0.000000E+00    0.000000E+00    0.000000E+00    0.000000E+00    0.000000E+00    0.000000E+00    0.000000E+00    0.000000E+00    0.000000E+00    0.000000E+00    0.000000E+00    0.000000E+00    0.000000E+00    0.000000E+00    0.000000E+00    0.000000E+00    0.000000E+00    0.000000E+00    0.000000E+00    0.000000E+00    0.000000E+00    0.000000E+00
    0.000000E+00    0.000000E+00    0.000000E+00    0.000000E+00    0.000000E+00    0.000000E+00    0.000000E+00    0.000000E+00    0.000000E+00    0.000000E+00    0.000000E+00    0.000000E+00    0.000000E+00    0.000000E+00    0.000000E+00    0.000000E+00    0.000000E+00    0.000000E+00    0.000000E+00    0.000000E+00    0.000000E+00    0.000000E+00    0.000000E+00    0.000000E+00
    0.000000E+00    0.000000E+00    0.000000E+00    0.000000E+00    0.000000E+00    0.000000E+00    0.000000E+00    0.000000E+00    0.000000E+00    0.000000E+00    0.000000E+00    0.000000E+00    0.000000E+00    0.000000E+00    0.000000E+00    0.000000E+00    0.000000E+00    0.000000E+00    0.000000E+00    0.000000E+00    0.000000E+00    0.000000E+00    0.000000E+00    0.000000E+00
    0.000000E+00    0.000000E+00    0.000000E+00    0.000000E+00    0.000000E+00    0.000000E+00    0.000000E+00    0.000000E+00    0.000000E+00    0.000000E+00    0.000000E+00    0.000000E+00    0.000000E+00    0.000000E+00    0.000000E+00    0.000000E+00    0.000000E+00    0.000000E+00    0.000000E+00    0.000000E+00    0.000000E+00    0.000000E+00    0.000000E+00    0.000000E+00
    0.000000E+00    0.000000E+00    0.000000E+00    0.000000E+00    0.000000E+00    0.000000E+00    0.000000E+00    0.000000E+00    0.000000E+00    0.000000E+00    0.000000E+00    0.000000E+00    0.000000E+00    0.000000E+00    0.000000E+00    0.000000E+00    0.000000E+00    0.000000E+00    0.000000E+00    0.000000E+00    0.000000E+00    0.000000E+00    0.000000E+00    0.000000E+00
    0.000000E+00    0.000000E+00    0.000000E+00    0.000000E+00    0.000000E+00    0.000000E+00    0.000000E+00    0.000000E+00    0.000000E+00    0.000000E+00    0.000000E+00    0.000000E+00    0.000000E+00    0.000000E+00    0.000000E+00    0.000000E+00    0.000000E+00    0.000000E+00    0.000000E+00    0.000000E+00    0.000000E+00    0.000000E+00    0.000000E+00    0.000000E+00
    0.000000E+00    0.000000E+00    0.000000E+00    0.000000E+00    0.000000E+00    0.000000E+00    0.000000E+00    0.000000E+00    0.000000E+00    0.000000E+00    0.000000E+00    0.000000E+00    0.000000E+00    0.000000E+00    0.000000E+00    0.000000E+00    0.000000E+00    0.000000E+00    0.000000E+00    0.000000E+00    0.000000E+00    0.000000E+00    0.000000E+00    0.000000E+00
    0.000000E+00    0.000000E+00    0.000000E+00    0.000000E+00    0.000000E+00    0.000000E+00    0.000000E+00    0.000000E+00    0.000000E+00    0.000000E+00    0.000000E+00    0.000000E+00    0.000000E+00    0.000000E+00    0.000000E+00    0.000000E+00    0.000000E+00    0.000000E+00    0.000000E+00    0.000000E+00    0.000000E+00    0.000000E+00    0.000000E+00    0.000000E+00

Linearized state matrices:

A: 4 x 4
    0.00000000E+00  0.00000000E+00  1.00000000E+00  0.00000000E+00
    0.00000000E+00  0.00000000E+00  0.00000000E+00  1.00000000E+00
   -6.13095767E+00  2.10929947E-03 -1.30824956E-01  2.60824183E-01
   -3.97371065E-05 -2.97061610E-05 -8.76258473E-03 -7.03664054E-02
B: 4 x 9
    0.00000000E+00  0.00000000E+00  0.00000000E+00  0.00000000E+00  0.00000000E+00  0.00000000E+00  0.00000000E+00  0.00000000E+00  0.00000000E+00
    0.00000000E+00  0.00000000E+00  0.00000000E+00  0.00000000E+00  0.00000000E+00  0.00000000E+00  0.00000000E+00  0.00000000E+00  0.00000000E+00
    8.08636086E-02  5.15570541E-02 -1.07947296E-02 -3.04121206E-01 -5.79966842E-02 -4.85026796E-01  0.00000000E+00 -8.26409604E-15 -8.47144686E-01
    8.45572091E-03 -2.34904056E-03 -1.56646286E-04 -1.40163473E-04 -1.67115258E-03  5.66750221E-05  0.00000000E+00 -2.21954956E-06 -1.75464103E-03
C: 16 x 4
    0.00000000E+00  0.00000000E+00  0.00000000E+00  0.00000000E+00
    0.00000000E+00  0.00000000E+00  0.00000000E+00  1.37805313E+03
    0.00000000E+00  0.00000000E+00  0.00000000E+00  2.09840777E+01
    0.00000000E+00  0.00000000E+00  0.00000000E+00  0.00000000E+00
    0.00000000E+00  5.72962166E+01  0.00000000E+00  0.00000000E+00
    0.00000000E+00  0.00000000E+00  0.00000000E+00  9.54929431E+00
    0.00000000E+00  0.00000000E+00  0.00000000E+00  9.26281623E+02
   -6.35818159E+00  2.18747378E-03 -1.35671496E-01  2.70490750E-01
    1.00000001E+00  0.00000000E+00  0.00000000E+00  0.00000000E+00
    7.17708351E+02  1.49987938E-01 -2.05190497E+01  8.72514854E+01
   -1.99392697E-01 -1.50074876E-01 -4.40361458E+01  1.68182781E+03
    1.97611550E+05 -1.27756204E+01  8.92650310E+02  1.43200968E+01
    1.20265478E+04  2.14999549E+01 -5.16132805E+02 -3.93126141E+02
    2.13628326E+05 -1.59284473E+01  1.02849407E+03  1.15711579E+01
   -1.50339610E+02  3.83023940E+02 -3.53599138E+04  1.16828000E+05
   -2.26968844E+03 -1.25580581E+03 -3.82954232E+05 -1.03973897E+06
D: 16 x 9
    1.00000000E+00  0.00000000E+00  0.00000000E+00  0.00000000E+00  0.00000000E+00  0.00000000E+00  0.00000000E+00  0.00000000E+00  0.00000000E+00
    0.00000000E+00  0.00000000E+00  0.00000000E+00  0.00000000E+00  0.00000000E+00  0.00000000E+00  0.00000000E+00  0.00000000E+00  0.00000000E+00
    0.00000000E+00  0.00000000E+00  0.00000000E+00  0.00000000E+00  0.00000000E+00  0.00000000E+00  0.00000000E+00  0.00000000E+00  0.00000000E+00
    0.00000000E+00  0.00000000E+00  0.00000000E+00  5.72957761E+01  0.00000000E+00  0.00000000E+00  0.00000000E+00  0.00000000E+00  5.72957761E+01
    0.00000000E+00  0.00000000E+00  0.00000000E+00  0.00000000E+00  0.00000000E+00  0.00000000E+00  0.00000000E+00  0.00000000E+00  0.00000000E+00
    0.00000000E+00  0.00000000E+00  0.00000000E+00  0.00000000E+00  0.00000000E+00  0.00000000E+00  0.00000000E+00  0.00000000E+00  0.00000000E+00
    0.00000000E+00  0.00000000E+00  0.00000000E+00  0.00000000E+00  0.00000000E+00  0.00000000E+00  0.00000000E+00  0.00000000E+00  0.00000000E+00
    8.38605449E-02  5.34678436E-02 -1.11948001E-02 -3.15392432E-01 -6.01461308E-02 -5.03002678E-01  0.00000000E+00  0.00000000E+00 -8.78541241E-01
    0.00000000E+00  0.00000000E+00  0.00000000E+00  0.00000000E+00  0.00000000E+00  0.00000000E+00  0.00000000E+00  0.00000000E+00  0.00000000E+00
    2.45205301E+01 -1.32016661E+01  5.75268619E-01 -8.85213617E+01 -1.14884245E+02 -6.12511953E+01  0.00000000E+00  0.00000000E+00 -2.64656802E+02
    4.24943959E+01 -1.18052861E+01 -7.86784011E-01 -7.02168785E-01 -8.39977581E+00  2.84198290E-01  0.00000000E+00  8.58456282E-02 -8.81774631E+00
   -5.58289322E+01 -7.22833451E+02  1.04183054E+02  3.01216691E+02 -2.27400925E+03  2.37330747E+03  0.00000000E+00  0.00000000E+00  4.00514917E+02
   -6.38550548E+00  1.31272126E+03 -1.84443164E+02 -1.50602509E+02  4.43840667E+03 -3.86759910E+03  0.00000000E+00  0.00000000E+00  4.20205062E+02
   -7.13336537E+01 -8.99692616E+02  1.29739769E+02  3.81561803E+02 -2.82507358E+03  2.96163314E+03  0.00000000E+00  0.00000000E+00  5.18121363E+02
    3.36939487E+04 -7.35300767E+03 -6.50066623E+02 -1.23023326E+05 -1.21463182E+05 -1.16274559E+05  0.00000000E+00  0.00000000E+00 -3.60761067E+05
    3.69540220E+05 -1.02655802E+05 -6.83271299E+03 -6.12378711E+03 -7.30380151E+04  2.47680138E+03  0.00000000E+00  0.00000000E+00 -7.66850009E+04
