# vtk DataFile Version 3.0
Low resolution, disturbed wind of XY Slice at time = 0 seconds.
ASCII
DATASET STRUCTURED_POINTS
DIMENSIONS   3    2     1
ORIGIN      0.00    0.00       0.00
SPACING     20      10.00      10.00
POINT_DATA            6
VECTORS DisXY float
      0.00       0.00      0.00
     20.00       0.00      0.00
     40.00       0.00      0.00
      0.00      10.00      0.00
     20.00      10.00      0.00
     40.00      10.00      0.00
