
FAST Summary File

Predictions were generated on 03-Nov-2016 at 13:41:40 using FAST (v8.17.00a-bjj, 27-Aug-2016), compiled as a 32-bit application using single precision
  compiled with
    NWTC Subroutine Library (v2.10.00, 27-Aug-2016)
    ElastoDyn (v1.04.00a-bjj, 26-Jul-2016)
    BeamDyn (unknown version, unknown date) [not called]
    InflowWind (v3.03.00, 26-Jul-2016)
    AeroDyn14 (unknown version, unknown date) [not called]
    AeroDyn (v15.04.00, 29-Oct-2016)
    ServoDyn (v1.06.00a-bjj, 26-Jul-2016)
    HydroDyn (v2.05.01, 27-Jul-2016)
    SubDyn (v1.03.00, 11-Apr-2016)
    ExtPtfm_MCKF (unknown version, unknown date) [not called]
    MAP (unknown version, unknown date) [not called]
    FEAMooring (unknown version, unknown date) [not called]
    MoorDyn (unknown version, unknown date) [not called]
    OrcaFlexInterface (unknown version, unknown date) [not called]
    IceFloe (unknown version, unknown date) [not called]
    IceDyn (unknown version, unknown date) [not called]


Modeling a fixed-bottom offshore turbine
Description from the FAST input file: 
  FAST Certification Test #19: NREL 5.0 MW Baseline Wind Turbine with OC3 Monopile RF Configuration, for use in offshore analysis

Interpolation order for input/output time histories: 2 (quadratic)
Number of correction iterations:  0
Number of rows in Jacobian matrix used for coupling ElastoDyn, SubDyn, HydroDyn, OrcaFlex, ExtPtfm_MCKF, and/or BeamDyn:    498


   Requested Time Steps  
  -------------------------------------------------
  Component          Time Step (s)    Subcycles (-)
  -----------------  ---------------  -------------
  FAST (glue code)    5.000E-03
  InflowWind          5.000E-03              1
  ElastoDyn           5.000E-03              1
  AeroDyn             5.000E-03              1
  ServoDyn            5.000E-03              1
  HydroDyn            5.000E-03              1
  SubDyn              5.000E-03              1
  FAST output files   5.000E-02             10^-1


   Requested Channels in FAST Output File(s)  
  --------------------------------------------
  Number  Name        Units       Generated by
  ------  ----------  ----------  ------------
       1  Time        (s)         FAST
       2  Wind1VelX   (m/s)       InflowWind
       3  Wind1VelY   (m/s)       InflowWind
       4  Wind1VelZ   (m/s)       InflowWind
       5  OoPDefl1    (m)         ElastoDyn
       6  IPDefl1     (m)         ElastoDyn
       7  TwstDefl1   (deg)       ElastoDyn
       8  BldPitch1   (deg)       ElastoDyn
       9  Azimuth     (deg)       ElastoDyn
      10  RotSpeed    (rpm)       ElastoDyn
      11  GenSpeed    (rpm)       ElastoDyn
      12  TwHt1TPxi   (m)         ElastoDyn
      13  TwHt1TPyi   (m)         ElastoDyn
      14  TTDspTwst   (deg)       ElastoDyn
      15  PtfmSurge   (m)         ElastoDyn
      16  PtfmSway    (m)         ElastoDyn
      17  PtfmRoll    (deg)       ElastoDyn
      18  PtfmPitch   (deg)       ElastoDyn
      19  Spn2MLxb1   (kN·m)      ElastoDyn
      20  Spn2MLyb1   (kN·m)      ElastoDyn
      21  RootFxc1    (kN)        ElastoDyn
      22  RootFyc1    (kN)        ElastoDyn
      23  RootFzc1    (kN)        ElastoDyn
      24  RootMxc1    (kN·m)      ElastoDyn
      25  RootMyc1    (kN·m)      ElastoDyn
      26  RootMzc1    (kN·m)      ElastoDyn
      27  RotTorq     (kN·m)      ElastoDyn
      28  LSSGagMya   (kN·m)      ElastoDyn
      29  LSSGagMza   (kN·m)      ElastoDyn
      30  YawBrFxp    (kN)        ElastoDyn
      31  YawBrFyp    (kN)        ElastoDyn
      32  YawBrFzp    (kN)        ElastoDyn
      33  YawBrMxp    (kN·m)      ElastoDyn
      34  YawBrMyp    (kN·m)      ElastoDyn
      35  YawBrMzp    (kN·m)      ElastoDyn
      36  RtAeroFxh   (N)         AeroDyn
      37  RtAeroFyh   (N)         AeroDyn
      38  RtAeroFzh   (N)         AeroDyn
      39  RtAeroMxh   (NÂ·m)      AeroDyn
      40  RtAeroMyh   (NÂ·m)      AeroDyn
      41  RtAeroMzh   (NÂ·m)      AeroDyn
      42  GenPwr      (kW)        ServoDyn
      43  GenTq       (kN·m)      ServoDyn
      44  Wave1Elev   (m)         HydroDyn
      45  M2N1MKxe    (N*m)       SubDyn
      46  M2N1MKye    (N*m)       SubDyn
      47  M1N1MKxe    (N*m)       SubDyn
      48  M1N1MKye    (N*m)       SubDyn
      49  -ReactFXss  (N)         SubDyn
      50  -ReactFYss  (N)         SubDyn
      51  -ReactFZss  (N)         SubDyn
      52  -ReactMXss  (Nm)        SubDyn
      53  -ReactMYss  (Nm)        SubDyn
      54  -ReactMZss  (Nm)        SubDyn
