
FAST Summary File

Predictions were generated on 03-Nov-2016 at 13:35:10 using FAST (v8.17.00a-bjj, 27-Aug-2016), compiled as a 32-bit application using single precision
  compiled with
    NWTC Subroutine Library (v2.10.00, 27-Aug-2016)
    ElastoDyn (v1.04.00a-bjj, 26-Jul-2016)
    BeamDyn (unknown version, unknown date) [not called]
    InflowWind (v3.03.00, 26-Jul-2016)
    AeroDyn14 (v14.05.01a-bjj, 25-Jul-2016)
    AeroDyn (unknown version, unknown date) [not called]
    ServoDyn (v1.06.00a-bjj, 26-Jul-2016)
    HydroDyn (unknown version, unknown date) [not called]
    SubDyn (unknown version, unknown date) [not called]
    ExtPtfm_MCKF (unknown version, unknown date) [not called]
    MAP (unknown version, unknown date) [not called]
    FEAMooring (unknown version, unknown date) [not called]
    MoorDyn (unknown version, unknown date) [not called]
    OrcaFlexInterface (unknown version, unknown date) [not called]
    IceFloe (unknown version, unknown date) [not called]
    IceDyn (unknown version, unknown date) [not called]


Modeling a land-based turbine
Description from the FAST input file: 
  FAST Certification Test #04: AWT-27CR2 with many DOFs with free yaw and FF turbulence.

Interpolation order for input/output time histories: 2 (quadratic)
Number of correction iterations:  0


   Requested Time Steps  
  -------------------------------------------------
  Component          Time Step (s)    Subcycles (-)
  -----------------  ---------------  -------------
  FAST (glue code)    3.000E-03
  InflowWind          3.000E-03              1
  ElastoDyn           3.000E-03              1
  AeroDyn14           3.000E-03              1
  ServoDyn            3.000E-03              1
  FAST output files   1.500E-02              5^-1


   Requested Channels in FAST Output File(s)  
  --------------------------------------------
  Number  Name        Units       Generated by
  ------  ----------  ----------  ------------
       1  Time        (s)         FAST
       2  Wind1VelX   (m/s)       InflowWind
       3  Wind1VelY   (m/s)       InflowWind
       4  Wind1VelZ   (m/s)       InflowWind
       5  Azimuth     (deg)       ElastoDyn
       6  TeetDefl    (deg)       ElastoDyn
       7  NacYawP     (deg)       ElastoDyn
       8  Spn5MLxb1   (kN·m)      ElastoDyn
       9  Spn5MLyb1   (kN·m)      ElastoDyn
      10  RootFxc1    (kN)        ElastoDyn
      11  RootFyc1    (kN)        ElastoDyn
      12  RootFzc1    (kN)        ElastoDyn
      13  RootMOoP1   (kN·m)      ElastoDyn
      14  RootMIP1    (kN·m)      ElastoDyn
      15  RootMzc1    (kN·m)      ElastoDyn
      16  RotTorq     (kN·m)      ElastoDyn
      17  YawBrMxp    (kN·m)      ElastoDyn
      18  YawBrMyp    (kN·m)      ElastoDyn
      19  TTDspFA     (m)         ElastoDyn
      20  TTDspSS     (m)         ElastoDyn
      21  TwrBsFxt    (kN)        ElastoDyn
      22  TwrBsFyt    (kN)        ElastoDyn
      23  Spn3TDxb2   (m)         ElastoDyn
      24  Spn4TDyb2   (m)         ElastoDyn
      25  Spn5TDzb2   (m)         ElastoDyn
      26  Spn2FLxb1   (kN)        ElastoDyn
      27  Spn2FLyb1   (kN)        ElastoDyn
      28  Spn2FLzb1   (kN)        ElastoDyn
