
FAST Summary File

Predictions were generated on 03-Nov-2016 at 13:35:59 using FAST (v8.17.00a-bjj, 27-Aug-2016), compiled as a 32-bit application using single precision
  compiled with
    NWTC Subroutine Library (v2.10.00, 27-Aug-2016)
    ElastoDyn (v1.04.00a-bjj, 26-Jul-2016)
    BeamDyn (unknown version, unknown date) [not called]
    InflowWind (v3.03.00, 26-Jul-2016)
    AeroDyn14 (v14.05.01a-bjj, 25-Jul-2016)
    AeroDyn (unknown version, unknown date) [not called]
    ServoDyn (v1.06.00a-bjj, 26-Jul-2016)
    HydroDyn (unknown version, unknown date) [not called]
    SubDyn (unknown version, unknown date) [not called]
    ExtPtfm_MCKF (unknown version, unknown date) [not called]
    MAP (unknown version, unknown date) [not called]
    FEAMooring (unknown version, unknown date) [not called]
    MoorDyn (unknown version, unknown date) [not called]
    OrcaFlexInterface (unknown version, unknown date) [not called]
    IceFloe (unknown version, unknown date) [not called]
    IceDyn (unknown version, unknown date) [not called]


Modeling a land-based turbine
Description from the FAST input file: 
  FAST Certification Test #09: UAE Phase VI (downwind) with many DOFs with yaw ramp and a steady wind.

Interpolation order for input/output time histories: 2 (quadratic)
Number of correction iterations:  0


   Requested Time Steps  
  -------------------------------------------------
  Component          Time Step (s)    Subcycles (-)
  -----------------  ---------------  -------------
  FAST (glue code)    3.000E-03
  InflowWind          3.000E-03              1
  ElastoDyn           3.000E-03              1
  AeroDyn14           3.000E-03              1
  ServoDyn            3.000E-03              1
  FAST output files   4.800E-02             16^-1


   Requested Channels in FAST Output File(s)  
  --------------------------------------------
  Number  Name        Units       Generated by
  ------  ----------  ----------  ------------
       1  Time        (s)         FAST
       2  Wind1VelX   (m/s)       InflowWind
       3  Wind1VelY   (m/s)       InflowWind
       4  Wind1VelZ   (m/s)       InflowWind
       5  Azimuth     (deg)       ElastoDyn
       6  TipALxb1    (m/s^2)     ElastoDyn
       7  TipALyb1    (m/s^2)     ElastoDyn
       8  TipALxb2    (m/s^2)     ElastoDyn
       9  TipALyb2    (m/s^2)     ElastoDyn
      10  Spn2ALxb1   (m/s^2)     ElastoDyn
      11  Spn2ALyb1   (m/s^2)     ElastoDyn
      12  RotAccel    (deg/s^2)   ElastoDyn
      13  LSSGagA     (deg/s^2)   ElastoDyn
      14  HSShftA     (deg/s^2)   ElastoDyn
      15  NacYaw      (deg)       ElastoDyn
      16  RootMEdg1   (kN·m)      ElastoDyn
      17  RootMFlp1   (kN·m)      ElastoDyn
      18  RootMEdg2   (kN·m)      ElastoDyn
      19  RootMFlp2   (kN·m)      ElastoDyn
      20  Spn3MLxb1   (kN·m)      ElastoDyn
      21  Spn3MLyb1   (kN·m)      ElastoDyn
      22  Spn5MLxb1   (kN·m)      ElastoDyn
      23  Spn5MLyb1   (kN·m)      ElastoDyn
      24  YawBrFxp    (kN)        ElastoDyn
      25  YawBrFyp    (kN)        ElastoDyn
      26  YawBrMxn    (kN·m)      ElastoDyn
      27  YawBrMyn    (kN·m)      ElastoDyn
