
FAST Summary File

Predictions were generated on 12-Jun-2024 at 09:42:59 using OpenFAST, compiled as a 64-bit application using double precision at commit v3.5.2-7-g2ec068f8-dirty
  compiled with
    NWTC Subroutine Library
    ElastoDyn
    BeamDyn (unknown version, unknown date) [not called]
    InflowWind
    AeroDyn14 (unknown version, unknown date) [not called]
    AeroDyn
    ServoDyn
    HydroDyn (unknown version, unknown date) [not called]
    SubDyn (unknown version, unknown date) [not called]
    ExtPtfm_MCKF (unknown version, unknown date) [not called]
    MAP (unknown version, unknown date) [not called]
    FEAMooring (unknown version, unknown date) [not called]
    MoorDyn (unknown version, unknown date) [not called]
    OrcaFlexInterface (unknown version, unknown date) [not called]
    IceFloe (unknown version, unknown date) [not called]
    IceDyn (unknown version, unknown date) [not called]


Modeling a land-based turbine
Description from the FAST input file: 
  FAST          Certification - Test #18: NREL 5.0 MW Baseline Wind Turbine (Onshore)

Interpolation order for input/output time histories: 2 (quadratic)
Number of correction iterations:  0


   Requested Time Steps  
  -------------------------------------------------
  Component          Time Step (s)    Subcycles (-)
  -----------------  ---------------  -------------
  FAST (glue code)    5.000E-03
  InflowWind          5.000E-03              1
  ElastoDyn           5.000E-03              1
  AeroDyn             5.000E-03              1
  ServoDyn            5.000E-03              1
  FAST output files   5.000E-03              1


   Requested Channels in FAST Output File(s)  
  --------------------------------------------
  Number  Name                  Units                 Generated by
  ------  --------------------  --------------------  ------------
       1  Time                  (s)                   OpenFAST
       2  Wind1VelX             (m/s)                 InflowWind
       3  Wind1VelY             (m/s)                 InflowWind
       4  Wind1VelZ             (m/s)                 InflowWind
       5  OoPDefl1              (m)                   ElastoDyn
       6  IPDefl1               (m)                   ElastoDyn
       7  TwstDefl1             (deg)                 ElastoDyn
       8  BldPitch1             (deg)                 ElastoDyn
       9  Azimuth               (deg)                 ElastoDyn
      10  RotSpeed              (rpm)                 ElastoDyn
      11  GenSpeed              (rpm)                 ElastoDyn
      12  TTDspFA               (m)                   ElastoDyn
      13  TTDspSS               (m)                   ElastoDyn
      14  TTDspTwst             (deg)                 ElastoDyn
      15  Spn2MLxb1             (kN-m)                ElastoDyn
      16  Spn2MLyb1             (kN-m)                ElastoDyn
      17  RootFxb1              (kN)                  ElastoDyn
      18  RootFyb1              (kN)                  ElastoDyn
      19  RootFzb1              (kN)                  ElastoDyn
      20  RootMxb1              (kN-m)                ElastoDyn
      21  RootMyb1              (kN-m)                ElastoDyn
      22  RootMyc1              (kN-m)                ElastoDyn
      23  RootMyc2              (kN-m)                ElastoDyn
      24  RootMyc3              (kN-m)                ElastoDyn
      25  RootMzb1              (kN-m)                ElastoDyn
      26  RotTorq               (kN-m)                ElastoDyn
      27  LSSGagMya             (kN-m)                ElastoDyn
      28  LSSGagMza             (kN-m)                ElastoDyn
      29  YawBrFxp              (kN)                  ElastoDyn
      30  YawBrFyp              (kN)                  ElastoDyn
      31  YawBrFzp              (kN)                  ElastoDyn
      32  YawBrMxp              (kN-m)                ElastoDyn
      33  YawBrMyp              (kN-m)                ElastoDyn
      34  YawBrMzp              (kN-m)                ElastoDyn
      35  TwrBsFxt              (kN)                  ElastoDyn
      36  TwrBsFyt              (kN)                  ElastoDyn
      37  TwrBsFzt              (kN)                  ElastoDyn
      38  TwrBsMxt              (kN-m)                ElastoDyn
      39  TwrBsMyt              (kN-m)                ElastoDyn
      40  TwrBsMzt              (kN-m)                ElastoDyn
      41  NcIMURAys             (deg/s^2)             ElastoDyn
      42  NcIMUTAxs             (m/s^2)               ElastoDyn
      43  RtFldFxh              (N)                   AeroDyn
      44  RtFldFyh              (N)                   AeroDyn
      45  RtFldFzh              (N)                   AeroDyn
      46  RtFldMxh              (N-m)                 AeroDyn
      47  RtFldMyh              (N-m)                 AeroDyn
      48  RtFldMzh              (N-m)                 AeroDyn
      49  RtVAvgxh              (m/s)                 AeroDyn
      50  RtFldCp               (-)                   AeroDyn
      51  RtFldCt               (-)                   AeroDyn
      52  RtArea                (m^2)                 AeroDyn
      53  RtSpeed               (rpm)                 AeroDyn
      54  RtTSR                 (-)                   AeroDyn
      55  GenTq                 (kN-m)                ServoDyn
      56  GenPwr                (kW)                  ServoDyn
