
Predictions were generated on 12-Jun-2024 at 09:42:59
 OpenFAST



AirfoilNumber    TableNumber      alpha0           alpha1           alpha2           eta_e            C_nalpha         C_lalpha         T_f0             T_V0             T_p              T_VL             b1               b2               b5               A1               A2               A5               S1               S2               S3               S4               Cn1              Cn2              St_sh            Cd0              Cm0              k0               k1               k2               k3               k1_hat           x_cp_bar         UACutout         UACutout_delta   UACutout_blend   filtCutOff       alphaLowerWrap   alphaLower       alphaUpper       alphaUpperWrap   c_alphaLowerWrap c_alphaLower     c_alphaUpper     c_alphaUpperWrap c_RateWrap       c_RateLower      c_Rate           c_RateUpper     
(-)              (-)              (deg)            (deg)            (deg)            (-)              (-/rad)          (-/rad)          (-)              (-)              (-)              (-)              (-)              (-)              (-)              (-)              (-)              (-)              (-)              (-)              (-)              (-)              (-)              (-)              (-)              (-)              (-)              (-)              (-)              (-)              (-)              (-)              (-)              (deg)            (deg)            (deg)            (-)              (deg)            (deg)            (deg)            (deg)            (-)              (-)              (-)              (-)              (-/rad)          (-/rad)          (-/rad)          (-/rad)         
               1                1          0.00000          0.00000          0.00000          0.00000          0.00000          0.00000          0.00000          0.00000          0.00000          0.00000          0.00000          0.00000          0.00000          0.00000          0.00000          0.00000          0.00000          0.00000          0.00000          0.00000          0.00000          0.00000          0.00000          0.00000          0.00000          0.00000          0.00000          0.00000          0.00000          0.00000          0.00000          0.00000          0.00000          0.00000          0.00000          0.00000          0.00000          0.00000          0.00000          0.00000          0.00000          0.00000          0.00000          0.00000          0.00000          0.00000          0.00000 
               2                1          0.00000          0.00000          0.00000          0.00000          0.00000          0.00000          0.00000          0.00000          0.00000          0.00000          0.00000          0.00000          0.00000          0.00000          0.00000          0.00000          0.00000          0.00000          0.00000          0.00000          0.00000          0.00000          0.00000          0.00000          0.00000          0.00000          0.00000          0.00000          0.00000          0.00000          0.00000          0.00000          0.00000          0.00000          0.00000          0.00000          0.00000          0.00000          0.00000          0.00000          0.00000          0.00000          0.00000          0.00000          0.00000          0.00000          0.00000 
               3                1         -3.20000          9.00000         -9.00000          1.00000          7.48880          9.05273          3.00000          6.00000          1.70000         11.00000          0.14000          0.53000          5.00000          0.30000          0.70000          1.00000          0.00000          0.00000          0.00000          0.00000          1.35190         -0.32260          0.19000          0.03000         -0.05000          0.00000          0.00000          0.00000          0.00000          0.00000          0.20000         45.00000          5.00000         40.00000          0.50000        -45.00000         -0.25000          2.25000         55.00000         -5.61045          0.10507          0.47793          8.35959         -3.07855          7.31788          8.54531          8.56087 
               4                1         -1.20000         11.50000        -11.50000          1.00000          7.18380          8.82355          3.00000          6.00000          1.70000         11.00000          0.14000          0.53000          5.00000          0.30000          0.70000          1.00000          0.00000          0.00000          0.00000          0.00000          1.67170         -0.30750          0.19000          0.01200         -0.07000          0.00000          0.00000          0.00000          0.00000          0.00000          0.20000         45.00000          5.00000         40.00000          0.50000        -40.00000         -2.75000          5.75000         50.00000         -5.56999         -0.20172          0.96897          6.72117         -2.60827          8.25716          7.89125          7.44806 
               5                1         -2.20000          9.00000         -9.00000          1.00000          7.33260          8.47978          3.00000          6.00000          1.70000         11.00000          0.14000          0.53000          5.00000          0.30000          0.70000          1.00000          0.00000          0.00000          0.00000          0.00000          1.44900         -0.61380          0.19000          0.00800         -0.09000          0.00000          0.00000          0.00000          0.00000          0.00000          0.20000         45.00000          5.00000         40.00000          0.50000        -45.00000         -6.39000          6.25000         45.00000         -5.67249         -0.57626          1.09716          5.87251         -2.44993          7.56262          7.58542          7.06084 
               6                1         -3.20000          8.50000         -8.50000          1.00000          6.44620          7.97647          3.00000          6.00000          1.70000         11.00000          0.14000          0.53000          5.00000          0.30000          0.70000          1.00000          0.00000          0.00000          0.00000          0.00000          1.43360         -0.68730          0.19000          0.00600         -0.12000          0.00000          0.00000          0.00000          0.00000          0.00000          0.20000         45.00000          5.00000         40.00000          0.50000        -45.00000         -7.96000          3.75000         32.00000         -5.53755         -0.61874          0.91909          4.38619         -2.00914          7.60871          7.52444          7.03186 
               7                1         -4.20000          8.00000         -8.00000          1.00000          6.20470          8.96402          3.00000          6.00000          1.70000         11.00000          0.14000          0.53000          5.00000          0.30000          0.70000          1.00000          0.00000          0.00000          0.00000          0.00000          1.41440         -0.53240          0.19000          0.00600         -0.12100          0.00000          0.00000          0.00000          0.00000          0.00000          0.20000         45.00000          5.00000         40.00000          0.50000        -35.00000         -9.05000          2.75000         30.00000         -4.67755         -0.67498          0.85701          4.10998         -1.70674          8.83741          7.43866          6.83970 
               8                1         -4.43200          9.00000         -9.00000          1.00000          6.00310          7.67763          3.00000          6.00000          1.70000         11.00000          0.14000          0.53000          5.00000          0.30000          0.70000          1.00000          0.00000          0.00000          0.00000          0.00000          1.40730         -0.79450          0.19000          0.00650         -0.08800          0.00000          0.00000          0.00000          0.00000          0.00000          0.20000         45.00000          5.00000         40.00000          0.50000        -50.00000         -5.50000          4.50000         28.00000         -6.14917         -0.20664          0.95141          3.60393         -1.98160          7.65128          6.63516          6.46715 
