
FAST Summary File

Predictions were generated on 03-Nov-2016 at 13:38:53 using FAST (v8.17.00a-bjj, 27-Aug-2016), compiled as a 32-bit application using single precision
  compiled with
    NWTC Subroutine Library (v2.10.00, 27-Aug-2016)
    ElastoDyn (v1.04.00a-bjj, 26-Jul-2016)
    BeamDyn (unknown version, unknown date) [not called]
    InflowWind (v3.03.00, 26-Jul-2016)
    AeroDyn14 (unknown version, unknown date) [not called]
    AeroDyn (v15.04.00, 29-Oct-2016)
    ServoDyn (v1.06.00a-bjj, 26-Jul-2016)
    HydroDyn (unknown version, unknown date) [not called]
    SubDyn (unknown version, unknown date) [not called]
    ExtPtfm_MCKF (unknown version, unknown date) [not called]
    MAP (unknown version, unknown date) [not called]
    FEAMooring (unknown version, unknown date) [not called]
    MoorDyn (unknown version, unknown date) [not called]
    OrcaFlexInterface (unknown version, unknown date) [not called]
    IceFloe (unknown version, unknown date) [not called]
    IceDyn (unknown version, unknown date) [not called]


Modeling a land-based turbine
Description from the FAST input file: 
  FAST Certification Test #18: NREL 5.0 MW Baseline Wind Turbine (Onshore)

Interpolation order for input/output time histories: 2 (quadratic)
Number of correction iterations:  0


   Requested Time Steps  
  -------------------------------------------------
  Component          Time Step (s)    Subcycles (-)
  -----------------  ---------------  -------------
  FAST (glue code)    6.250E-03
  InflowWind          6.250E-03              1
  ElastoDyn           6.250E-03              1
  AeroDyn             6.250E-03              1
  ServoDyn            6.250E-03              1
  FAST output files   6.250E-03              1


   Requested Channels in FAST Output File(s)  
  --------------------------------------------
  Number  Name        Units       Generated by
  ------  ----------  ----------  ------------
       1  Time        (s)         FAST
       2  Wind1VelX   (m/s)       InflowWind
       3  Wind1VelY   (m/s)       InflowWind
       4  Wind1VelZ   (m/s)       InflowWind
       5  OoPDefl1    (m)         ElastoDyn
       6  IPDefl1     (m)         ElastoDyn
       7  TwstDefl1   (deg)       ElastoDyn
       8  BldPitch1   (deg)       ElastoDyn
       9  Azimuth     (deg)       ElastoDyn
      10  RotSpeed    (rpm)       ElastoDyn
      11  GenSpeed    (rpm)       ElastoDyn
      12  TTDspFA     (m)         ElastoDyn
      13  TTDspSS     (m)         ElastoDyn
      14  TTDspTwst   (deg)       ElastoDyn
      15  Spn2MLxb1   (kN·m)      ElastoDyn
      16  Spn2MLyb1   (kN·m)      ElastoDyn
      17  RootFxb1    (kN)        ElastoDyn
      18  RootFyb1    (kN)        ElastoDyn
      19  RootFzb1    (kN)        ElastoDyn
      20  RootMxb1    (kN·m)      ElastoDyn
      21  RootMyb1    (kN·m)      ElastoDyn
      22  RootMzb1    (kN·m)      ElastoDyn
      23  RotTorq     (kN·m)      ElastoDyn
      24  LSSGagMya   (kN·m)      ElastoDyn
      25  LSSGagMza   (kN·m)      ElastoDyn
      26  YawBrFxp    (kN)        ElastoDyn
      27  YawBrFyp    (kN)        ElastoDyn
      28  YawBrFzp    (kN)        ElastoDyn
      29  YawBrMxp    (kN·m)      ElastoDyn
      30  YawBrMyp    (kN·m)      ElastoDyn
      31  YawBrMzp    (kN·m)      ElastoDyn
      32  TwrBsFxt    (kN)        ElastoDyn
      33  TwrBsFyt    (kN)        ElastoDyn
      34  TwrBsFzt    (kN)        ElastoDyn
      35  TwrBsMxt    (kN·m)      ElastoDyn
      36  TwrBsMyt    (kN·m)      ElastoDyn
      37  TwrBsMzt    (kN·m)      ElastoDyn
      38  GenPwr      (kW)        ServoDyn
      39  GenTq       (kN·m)      ServoDyn
