
FAST Summary File

Predictions were generated on 03-Nov-2016 at 13:42:38 using FAST (v8.17.00a-bjj, 27-Aug-2016), compiled as a 32-bit application using single precision
  compiled with
    NWTC Subroutine Library (v2.10.00, 27-Aug-2016)
    ElastoDyn (v1.04.00a-bjj, 26-Jul-2016)
    BeamDyn (unknown version, unknown date) [not called]
    InflowWind (v3.03.00, 26-Jul-2016)
    AeroDyn14 (unknown version, unknown date) [not called]
    AeroDyn (v15.04.00, 29-Oct-2016)
    ServoDyn (v1.06.00a-bjj, 26-Jul-2016)
    HydroDyn (v2.05.01, 27-Jul-2016)
    SubDyn (v1.03.00, 11-Apr-2016)
    ExtPtfm_MCKF (unknown version, unknown date) [not called]
    MAP (unknown version, unknown date) [not called]
    FEAMooring (unknown version, unknown date) [not called]
    MoorDyn (unknown version, unknown date) [not called]
    OrcaFlexInterface (unknown version, unknown date) [not called]
    IceFloe (unknown version, unknown date) [not called]
    IceDyn (unknown version, unknown date) [not called]


Modeling a fixed-bottom offshore turbine
Description from the FAST input file: 
  FAST Certification Test #20: NREL 5.0 MW Baseline Wind Turbine with OC3 Tripod Configuration, for use in offshore analysis

Interpolation order for input/output time histories: 2 (quadratic)
Number of correction iterations:  1
Number of rows in Jacobian matrix used for coupling ElastoDyn, SubDyn, HydroDyn, OrcaFlex, ExtPtfm_MCKF, and/or BeamDyn:   4860


   Requested Time Steps  
  -------------------------------------------------
  Component          Time Step (s)    Subcycles (-)
  -----------------  ---------------  -------------
  FAST (glue code)    8.000E-03
  InflowWind          8.000E-03              1
  ElastoDyn           8.000E-03              1
  AeroDyn             8.000E-03              1
  ServoDyn            8.000E-03              1
  HydroDyn            8.000E-03              1
  SubDyn              8.000E-03              1
  FAST output files   4.000E-02              5^-1


   Requested Channels in FAST Output File(s)  
  --------------------------------------------
  Number  Name        Units       Generated by
  ------  ----------  ----------  ------------
       1  Time        (s)         FAST
       2  Wind1VelX   (m/s)       InflowWind
       3  Wind1VelY   (m/s)       InflowWind
       4  Wind1VelZ   (m/s)       InflowWind
       5  OoPDefl1    (m)         ElastoDyn
       6  IPDefl1     (m)         ElastoDyn
       7  TwstDefl1   (deg)       ElastoDyn
       8  BldPitch1   (deg)       ElastoDyn
       9  Azimuth     (deg)       ElastoDyn
      10  RotSpeed    (rpm)       ElastoDyn
      11  GenSpeed    (rpm)       ElastoDyn
      12  TwHt1TPxi   (m)         ElastoDyn
      13  TwHt1TPyi   (m)         ElastoDyn
      14  TTDspTwst   (deg)       ElastoDyn
      15  Spn2MLxb1   (kN·m)      ElastoDyn
      16  Spn2MLyb1   (kN·m)      ElastoDyn
      17  RootFxc1    (kN)        ElastoDyn
      18  RootFyc1    (kN)        ElastoDyn
      19  RootFzc1    (kN)        ElastoDyn
      20  RootMxc1    (kN·m)      ElastoDyn
      21  RootMyc1    (kN·m)      ElastoDyn
      22  RootMzc1    (kN·m)      ElastoDyn
      23  RotTorq     (kN·m)      ElastoDyn
      24  LSSGagMya   (kN·m)      ElastoDyn
      25  LSSGagMza   (kN·m)      ElastoDyn
      26  YawBrFxp    (kN)        ElastoDyn
      27  YawBrFyp    (kN)        ElastoDyn
      28  YawBrFzp    (kN)        ElastoDyn
      29  YawBrMxp    (kN·m)      ElastoDyn
      30  YawBrMyp    (kN·m)      ElastoDyn
      31  YawBrMzp    (kN·m)      ElastoDyn
      32  TwN5Vrel    (m/s)       AeroDyn
      33  TwN5DynP    (Pa)        AeroDyn
      34  TwN5Re      (-)         AeroDyn
      35  TwN5Fdx     (N/m)       AeroDyn
      36  TwN5Fdy     (N/m)       AeroDyn
      37  GenPwr      (kW)        ServoDyn
      38  GenTq       (kN·m)      ServoDyn
      39  Wave1Elev   (m)         HydroDyn
      40  M1N1Vxi     (m/s)       HydroDyn
      41  M1N1Vzi     (m/s)       HydroDyn
      42  M1N1Axi     (m/s^2)     HydroDyn
      43  M1N1Azi     (m/s^2)     HydroDyn
      44  M1N1FDxi    (N/m)       HydroDyn
      45  M1N1FDzi    (N/m)       HydroDyn
      46  M1N1FIxi    (N/m)       HydroDyn
      47  M1N1FIzi    (N/m)       HydroDyn
      48  M1N1FAxi    (N/m)       HydroDyn
      49  M1N1FAzi    (N/m)       HydroDyn
      50  M1N1TDxss   (m)         SubDyn
      51  M1N1TDyss   (m)         SubDyn
      52  M1N1RDxe    (rad)       SubDyn
      53  M1N1RDye    (rad)       SubDyn
      54  M1N2FKxe    (N)         SubDyn
      55  M1N2FKye    (N)         SubDyn
      56  M1N2FKze    (N)         SubDyn
      57  M1N2MKxe    (N*m)       SubDyn
      58  M1N2MKye    (N*m)       SubDyn
      59  M1N2MKze    (N*m)       SubDyn
      60  M1N1FKxe    (N)         SubDyn
      61  M1N1FKye    (N)         SubDyn
      62  M1N1FKze    (N)         SubDyn
      63  M1N1MKxe    (N*m)       SubDyn
      64  M1N1MKye    (N*m)       SubDyn
      65  M1N1MKze    (N*m)       SubDyn
      66  M2N1FKxe    (N)         SubDyn
      67  M2N1FKye    (N)         SubDyn
      68  M2N1FKze    (N)         SubDyn
      69  M2N1MKxe    (N*m)       SubDyn
      70  M2N1MKye    (N*m)       SubDyn
      71  M2N1MKze    (N*m)       SubDyn
      72  M3N1FKxe    (N)         SubDyn
      73  M3N1FKye    (N)         SubDyn
      74  M3N1FKze    (N)         SubDyn
      75  M3N1MKxe    (N*m)       SubDyn
      76  M3N1MKye    (N*m)       SubDyn
      77  M3N1MKze    (N*m)       SubDyn
      78  M4N1FKxe    (N)         SubDyn
      79  M4N1FKye    (N)         SubDyn
      80  M4N1FKze    (N)         SubDyn
      81  M4N1MKxe    (N*m)       SubDyn
      82  M4N1MKye    (N*m)       SubDyn
      83  M4N1MKze    (N*m)       SubDyn
      84  M5N1FKxe    (N)         SubDyn
      85  M5N1FKye    (N)         SubDyn
      86  M5N1FKze    (N)         SubDyn
      87  M5N1MKxe    (N*m)       SubDyn
      88  M5N1MKye    (N*m)       SubDyn
      89  M5N1MKze    (N*m)       SubDyn
      90  M6N1FKxe    (N)         SubDyn
      91  M6N1FKye    (N)         SubDyn
      92  M6N1FKze    (N)         SubDyn
      93  M6N1MKxe    (N*m)       SubDyn
      94  M6N1MKye    (N*m)       SubDyn
      95  M6N1MKze    (N*m)       SubDyn
      96  M7N1FKxe    (N)         SubDyn
      97  M7N1FKye    (N)         SubDyn
      98  M7N1FKze    (N)         SubDyn
      99  M7N1MKxe    (N*m)       SubDyn
     100  M7N1MKye    (N*m)       SubDyn
     101  M7N1MKze    (N*m)       SubDyn
     102  M8N1FKxe    (N)         SubDyn
     103  M8N1FKye    (N)         SubDyn
     104  M8N1FKze    (N)         SubDyn
     105  M8N1MKxe    (N*m)       SubDyn
     106  M8N1MKye    (N*m)       SubDyn
     107  M8N1MKze    (N*m)       SubDyn
     108  M9N1FKxe    (N)         SubDyn
     109  M9N1FKye    (N)         SubDyn
     110  M9N1FKze    (N)         SubDyn
     111  M9N1MKxe    (N*m)       SubDyn
     112  M9N1MKye    (N*m)       SubDyn
     113  M9N1MKze    (N*m)       SubDyn
