
FAST Summary File

Predictions were generated on 03-Nov-2016 at 13:54:57 using FAST (v8.17.00a-bjj, 27-Aug-2016), compiled as a 32-bit application using single precision
  compiled with
    NWTC Subroutine Library (v2.10.00, 27-Aug-2016)
    ElastoDyn (v1.04.00a-bjj, 26-Jul-2016)
    BeamDyn (unknown version, unknown date) [not called]
    InflowWind (v3.03.00, 26-Jul-2016)
    AeroDyn14 (v14.05.01a-bjj, 25-Jul-2016)
    AeroDyn (unknown version, unknown date) [not called]
    ServoDyn (v1.06.00a-bjj, 26-Jul-2016)
    HydroDyn (v2.05.01, 27-Jul-2016)
    SubDyn (unknown version, unknown date) [not called]
    ExtPtfm_MCKF (unknown version, unknown date) [not called]
    MAP++ (<1.20.10>, <Aug-27-2016>)
    FEAMooring (unknown version, unknown date) [not called]
    MoorDyn (unknown version, unknown date) [not called]
    OrcaFlexInterface (unknown version, unknown date) [not called]
    IceFloe (unknown version, unknown date) [not called]
    IceDyn (unknown version, unknown date) [not called]


Modeling a floating offshore turbine
Description from the FAST input file: 
  FAST Certification Test #22: NREL 5.0 MW Baseline Wind Turbine with ITI Barge Configuration, for use in offshore analysis

Interpolation order for input/output time histories: 2 (quadratic)
Number of correction iterations:  0
Number of rows in Jacobian matrix used for coupling ElastoDyn to HydroDyn:     12


   Requested Time Steps  
  -------------------------------------------------
  Component          Time Step (s)    Subcycles (-)
  -----------------  ---------------  -------------
  FAST (glue code)    1.250E-02
  InflowWind          1.250E-02              1
  ElastoDyn           1.250E-02              1
  AeroDyn14           1.250E-02              1
  ServoDyn            1.250E-02              1
  HydroDyn            1.250E-02              1
  MAP++               1.250E-02              1
  FAST output files   1.250E-02              1


   Requested Channels in FAST Output File(s)  
  --------------------------------------------
  Number  Name        Units       Generated by
  ------  ----------  ----------  ------------
       1  Time        (s)         FAST
       2  Wind1VelX   (m/s)       InflowWind
       3  Wind1VelY   (m/s)       InflowWind
       4  Wind1VelZ   (m/s)       InflowWind
       5  BldPitch1   (deg)       ElastoDyn
       6  BldPitch2   (deg)       ElastoDyn
       7  BldPitch3   (deg)       ElastoDyn
       8  Azimuth     (deg)       ElastoDyn
       9  RotSpeed    (rpm)       ElastoDyn
      10  GenSpeed    (rpm)       ElastoDyn
      11  NacYaw      (deg)       ElastoDyn
      12  OoPDefl1    (m)         ElastoDyn
      13  IPDefl1     (m)         ElastoDyn
      14  TwstDefl1   (deg)       ElastoDyn
      15  OoPDefl2    (m)         ElastoDyn
      16  IPDefl2     (m)         ElastoDyn
      17  TwstDefl2   (deg)       ElastoDyn
      18  OoPDefl3    (m)         ElastoDyn
      19  IPDefl3     (m)         ElastoDyn
      20  TwstDefl3   (deg)       ElastoDyn
      21  TwrClrnc1   (m)         ElastoDyn
      22  TwrClrnc2   (m)         ElastoDyn
      23  TwrClrnc3   (m)         ElastoDyn
      24  NcIMUTAxs   (m/s^2)     ElastoDyn
      25  NcIMUTAys   (m/s^2)     ElastoDyn
      26  NcIMUTAzs   (m/s^2)     ElastoDyn
      27  TTDspFA     (m)         ElastoDyn
      28  TTDspSS     (m)         ElastoDyn
      29  TTDspTwst   (deg)       ElastoDyn
      30  PtfmSurge   (m)         ElastoDyn
      31  PtfmSway    (m)         ElastoDyn
      32  PtfmHeave   (m)         ElastoDyn
      33  PtfmRoll    (deg)       ElastoDyn
      34  PtfmPitch   (deg)       ElastoDyn
      35  PtfmYaw     (deg)       ElastoDyn
      36  PtfmTAxt    (m/s^2)     ElastoDyn
      37  PtfmTAyt    (m/s^2)     ElastoDyn
      38  PtfmTAzt    (m/s^2)     ElastoDyn
      39  RootFxc1    (kN)        ElastoDyn
      40  RootFyc1    (kN)        ElastoDyn
      41  RootFzc1    (kN)        ElastoDyn
      42  RootMxc1    (kN·m)      ElastoDyn
      43  RootMyc1    (kN·m)      ElastoDyn
      44  RootMzc1    (kN·m)      ElastoDyn
      45  RootFxc2    (kN)        ElastoDyn
      46  RootFyc2    (kN)        ElastoDyn
      47  RootFzc2    (kN)        ElastoDyn
      48  RootMxc2    (kN·m)      ElastoDyn
      49  RootMyc2    (kN·m)      ElastoDyn
      50  RootMzc2    (kN·m)      ElastoDyn
      51  RootFxc3    (kN)        ElastoDyn
      52  RootFyc3    (kN)        ElastoDyn
      53  RootFzc3    (kN)        ElastoDyn
      54  RootMxc3    (kN·m)      ElastoDyn
      55  RootMyc3    (kN·m)      ElastoDyn
      56  RootMzc3    (kN·m)      ElastoDyn
      57  Spn1MLxb1   (kN·m)      ElastoDyn
      58  Spn1MLyb1   (kN·m)      ElastoDyn
      59  Spn1MLzb1   (kN·m)      ElastoDyn
      60  Spn1MLxb2   (kN·m)      ElastoDyn
      61  Spn1MLyb2   (kN·m)      ElastoDyn
      62  Spn1MLzb2   (kN·m)      ElastoDyn
      63  Spn1MLxb3   (kN·m)      ElastoDyn
      64  Spn1MLyb3   (kN·m)      ElastoDyn
      65  Spn1MLzb3   (kN·m)      ElastoDyn
      66  RotThrust   (kN)        ElastoDyn
      67  LSSGagFya   (kN)        ElastoDyn
      68  LSSGagFza   (kN)        ElastoDyn
      69  RotTorq     (kN·m)      ElastoDyn
      70  LSSGagMya   (kN·m)      ElastoDyn
      71  LSSGagMza   (kN·m)      ElastoDyn
      72  YawBrFxp    (kN)        ElastoDyn
      73  YawBrFyp    (kN)        ElastoDyn
      74  YawBrFzp    (kN)        ElastoDyn
      75  YawBrMxp    (kN·m)      ElastoDyn
      76  YawBrMyp    (kN·m)      ElastoDyn
      77  YawBrMzp    (kN·m)      ElastoDyn
      78  TwrBsFxt    (kN)        ElastoDyn
      79  TwrBsFyt    (kN)        ElastoDyn
      80  TwrBsFzt    (kN)        ElastoDyn
      81  TwrBsMxt    (kN·m)      ElastoDyn
      82  TwrBsMyt    (kN·m)      ElastoDyn
      83  TwrBsMzt    (kN·m)      ElastoDyn
      84  TwHt1MLxt   (kN·m)      ElastoDyn
      85  TwHt1MLyt   (kN·m)      ElastoDyn
      86  TwHt1MLzt   (kN·m)      ElastoDyn
      87  GenPwr      (kW)        ServoDyn
      88  GenTq       (kN·m)      ServoDyn
      89  Wave1Elev   (m)         HydroDyn
      90  T[1]        [N]         MAP++
      91  T[2]        [N]         MAP++
      92  T[3]        [N]         MAP++
      93  T[4]        [N]         MAP++
      94  T[5]        [N]         MAP++
      95  T[6]        [N]         MAP++
      96  T[7]        [N]         MAP++
      97  T[8]        [N]         MAP++
