
FAST Summary File

Predictions were generated on 03-Nov-2016 at 13:35:54 using FAST (v8.17.00a-bjj, 27-Aug-2016), compiled as a 32-bit application using single precision
  compiled with
    NWTC Subroutine Library (v2.10.00, 27-Aug-2016)
    ElastoDyn (v1.04.00a-bjj, 26-Jul-2016)
    BeamDyn (unknown version, unknown date) [not called]
    InflowWind (v3.03.00, 26-Jul-2016)
    AeroDyn14 (unknown version, unknown date) [not called]
    AeroDyn (v15.04.00, 29-Oct-2016)
    ServoDyn (v1.06.00a-bjj, 26-Jul-2016)
    HydroDyn (unknown version, unknown date) [not called]
    SubDyn (unknown version, unknown date) [not called]
    ExtPtfm_MCKF (unknown version, unknown date) [not called]
    MAP (unknown version, unknown date) [not called]
    FEAMooring (unknown version, unknown date) [not called]
    MoorDyn (unknown version, unknown date) [not called]
    OrcaFlexInterface (unknown version, unknown date) [not called]
    IceFloe (unknown version, unknown date) [not called]
    IceDyn (unknown version, unknown date) [not called]


Modeling a land-based turbine
Description from the FAST input file: 
  FAST Certification Test #08: AOC 15/50 with many DOFs with fixed yaw error and steady wind. Many parameters are pure fiction.

Interpolation order for input/output time histories: 2 (quadratic)
Number of correction iterations:  0


   Requested Time Steps  
  -------------------------------------------------
  Component          Time Step (s)    Subcycles (-)
  -----------------  ---------------  -------------
  FAST (glue code)    5.000E-03
  InflowWind          5.000E-03              1
  ElastoDyn           5.000E-03              1
  AeroDyn             5.000E-03              1
  ServoDyn            5.000E-03              1
  FAST output files   5.000E-02             10^-1


   Requested Channels in FAST Output File(s)  
  --------------------------------------------
  Number  Name        Units       Generated by
  ------  ----------  ----------  ------------
       1  Time        (s)         FAST
       2  Wind1VelX   (m/s)       InflowWind
       3  Wind1VelY   (m/s)       InflowWind
       4  Wind1VelZ   (m/s)       InflowWind
       5  LSSGagPxa   (deg)       ElastoDyn
       6  TipDxb1     (m)         ElastoDyn
       7  TipDxb2     (m)         ElastoDyn
       8  TipDyb1     (m)         ElastoDyn
       9  TipDyb2     (m)         ElastoDyn
      10  RollDefl1   (deg)       ElastoDyn
      11  RollDefl2   (deg)       ElastoDyn
      12  PtchDefl1   (deg)       ElastoDyn
      13  PtchDefl2   (deg)       ElastoDyn
      14  Spn1ALxb1   (m/s^2)     ElastoDyn
      15  Spn1ALyb1   (m/s^2)     ElastoDyn
      16  HSShftV     (rpm)       ElastoDyn
      17  TTDspRoll   (deg)       ElastoDyn
      18  TTDspPtch   (deg)       ElastoDyn
      19  YawBrRVxp   (deg/s)     ElastoDyn
      20  YawBrRVyp   (deg/s)     ElastoDyn
      21  YawBrRAxp   (deg/s^2)   ElastoDyn
      22  YawBrRAyp   (deg/s^2)   ElastoDyn
      23  RootFxb1    (kN)        ElastoDyn
      24  RootFyb1    (kN)        ElastoDyn
      25  Spn2MLxb1   (kN·m)      ElastoDyn
      26  Spn2MLyb1   (kN·m)      ElastoDyn
      27  LSShftFya   (kN)        ElastoDyn
      28  LSShftFza   (kN)        ElastoDyn
      29  YawBrFxn    (kN)        ElastoDyn
      30  YawBrFyn    (kN)        ElastoDyn
      31  RtSpeed     (rpm)       AeroDyn
      32  RtSkew      (deg)       AeroDyn
      33  B1N1Theta   (deg)       AeroDyn
      34  B1N2Theta   (deg)       AeroDyn
      35  B1N3Theta   (deg)       AeroDyn
      36  B1N4Theta   (deg)       AeroDyn
      37  B1N1AxInd   (-)         AeroDyn
      38  B1N2AxInd   (-)         AeroDyn
      39  B1N3AxInd   (-)         AeroDyn
      40  B1N4AxInd   (-)         AeroDyn
      41  B1N1Alpha   (deg)       AeroDyn
      42  B1N2Alpha   (deg)       AeroDyn
      43  B1N3Alpha   (deg)       AeroDyn
      44  B1N4Alpha   (deg)       AeroDyn
      45  B1N1Vrel    (m/s)       AeroDyn
      46  B1N2Vrel    (m/s)       AeroDyn
      47  B1N3Vrel    (m/s)       AeroDyn
      48  B1N4Vrel    (m/s)       AeroDyn
      49  B1N1Cl      (-)         AeroDyn
      50  B1N2Cl      (-)         AeroDyn
      51  B1N3Cl      (-)         AeroDyn
      52  B1N4Cl      (-)         AeroDyn
      53  B1N1Cd      (-)         AeroDyn
      54  B1N2Cd      (-)         AeroDyn
      55  B1N3Cd      (-)         AeroDyn
      56  B1N4Cd      (-)         AeroDyn
      57  B1N1Cm      (-)         AeroDyn
      58  B1N2Cm      (-)         AeroDyn
      59  B1N3Cm      (-)         AeroDyn
      60  B1N4Cm      (-)         AeroDyn
