
FAST Summary File

Predictions were generated on 03-Nov-2016 at 13:36:19 using FAST (v8.17.00a-bjj, 27-Aug-2016), compiled as a 32-bit application using single precision
  compiled with
    NWTC Subroutine Library (v2.10.00, 27-Aug-2016)
    ElastoDyn (v1.04.00a-bjj, 26-Jul-2016)
    BeamDyn (unknown version, unknown date) [not called]
    InflowWind (v3.03.00, 26-Jul-2016)
    AeroDyn14 (v14.05.01a-bjj, 25-Jul-2016)
    AeroDyn (unknown version, unknown date) [not called]
    ServoDyn (v1.06.00a-bjj, 26-Jul-2016)
    HydroDyn (unknown version, unknown date) [not called]
    SubDyn (unknown version, unknown date) [not called]
    ExtPtfm_MCKF (unknown version, unknown date) [not called]
    MAP (unknown version, unknown date) [not called]
    FEAMooring (unknown version, unknown date) [not called]
    MoorDyn (unknown version, unknown date) [not called]
    OrcaFlexInterface (unknown version, unknown date) [not called]
    IceFloe (unknown version, unknown date) [not called]
    IceDyn (unknown version, unknown date) [not called]


Modeling a land-based turbine
Description from the FAST input file: 
  FAST Certification Test #11: WindPACT 1.5 MW Baseline with many DOFs undergoing a pitch failure.

Interpolation order for input/output time histories: 2 (quadratic)
Number of correction iterations:  0


   Requested Time Steps  
  -------------------------------------------------
  Component          Time Step (s)    Subcycles (-)
  -----------------  ---------------  -------------
  FAST (glue code)    5.000E-03
  InflowWind          5.000E-03              1
  ElastoDyn           5.000E-03              1
  AeroDyn14           5.000E-03              1
  ServoDyn            5.000E-03              1
  FAST output files   5.000E-02             10^-1


   Requested Channels in FAST Output File(s)  
  --------------------------------------------
  Number  Name        Units       Generated by
  ------  ----------  ----------  ------------
       1  Time        (s)         FAST
       2  Wind1VelX   (m/s)       InflowWind
       3  Wind1VelY   (m/s)       InflowWind
       4  Wind1VelZ   (m/s)       InflowWind
       5  RotSpeed    (rpm)       ElastoDyn
       6  BldPitch1   (deg)       ElastoDyn
       7  OoPDefl1    (m)         ElastoDyn
       8  OoPDefl3    (m)         ElastoDyn
       9  TipALxb1    (m/s^2)     ElastoDyn
      10  RootMxb1    (kN·m)      ElastoDyn
      11  RootMyb1    (kN·m)      ElastoDyn
      12  RootMzb1    (kN·m)      ElastoDyn
      13  RotThrust   (kN)        ElastoDyn
      14  LSShftFya   (kN)        ElastoDyn
      15  LSShftFza   (kN)        ElastoDyn
      16  LSSTipMya   (kN·m)      ElastoDyn
      17  LSSTipMza   (kN·m)      ElastoDyn
      18  RotTorq     (kN·m)      ElastoDyn
      19  RotPwr      (kW)        ElastoDyn
      20  TTDspFA     (m)         ElastoDyn
      21  TTDspSS     (m)         ElastoDyn
      22  TwHt1MLxt   (kN·m)      ElastoDyn
      23  TwHt1MLyt   (kN·m)      ElastoDyn
      24  TwHt1MLzt   (kN·m)      ElastoDyn
      25  TwHt2FLxt   (kN)        ElastoDyn
      26  TwHt2FLyt   (kN)        ElastoDyn
      27  TwHt2FLzt   (kN)        ElastoDyn
      28  TwHt1RPxi   (deg)       ElastoDyn
      29  TwHt1TPxi   (m)         ElastoDyn
      30  TwHt1RDxt   (deg)       ElastoDyn
      31  TwHt1TDxt   (m)         ElastoDyn
      32  GenPwr      (kW)        ServoDyn
